{
    "builder_meta": null,
    "nsites": null,
    "elements": null,
    "nelements": null,
    "composition": null,
    "composition_reduced": null,
    "formula_pretty": "AcAlO3",
    "formula_anonymous": null,
    "chemsys": null,
    "volume": null,
    "density": null,
    "density_atomic": null,
    "symmetry": null,
    "property_name": null,
    "material_id": "mp-1183115",
    "deprecated": null,
    "deprecation_reasons": null,
    "last_updated": null,
    "origins": null,
    "warnings": null,
    "structure": null,
    "task_ids": null,
    "uncorrected_energy_per_atom": null,
    "energy_per_atom": null,
    "formation_energy_per_atom": null,
    "energy_above_hull": null,
    "is_stable": null,
    "equilibrium_reaction_energy_per_atom": null,
    "decomposes_to": null,
    "xas": null,
    "grain_boundaries": null,
    "band_gap": 4.1024,
    "cbm": null,
    "vbm": null,
    "efermi": null,
    "is_gap_direct": null,
    "is_metal": null,
    "es_source_calc_id": null,
    "bandstructure": null,
    "dos": null,
    "dos_energy_up": null,
    "dos_energy_down": null,
    "is_magnetic": null,
    "ordering": null,
    "total_magnetization": null,
    "total_magnetization_normalized_vol": null,
    "total_magnetization_normalized_formula_units": null,
    "num_magnetic_sites": null,
    "num_unique_magnetic_sites": null,
    "types_of_magnetic_species": null,
    "bulk_modulus": null,
    "shear_modulus": null,
    "universal_anisotropy": null,
    "homogeneous_poisson": null,
    "e_total": null,
    "e_ionic": null,
    "e_electronic": null,
    "n": null,
    "e_ij_max": null,
    "weighted_surface_energy_EV_PER_ANG2": null,
    "weighted_surface_energy": null,
    "weighted_work_function": null,
    "surface_anisotropy": null,
    "shape_factor": null,
    "has_reconstructed": null,
    "possible_species": null,
    "has_props": null,
    "theoretical": null,
    "database_IDs": null,
    "fields_not_requested": [
        "builder_meta",
        "nsites",
        "elements",
        "nelements",
        "composition",
        "composition_reduced",
        "formula_anonymous",
        "chemsys",
        "volume",
        "density",
        "density_atomic",
        "symmetry",
        "property_name",
        "deprecated",
        "deprecation_reasons",
        "last_updated",
        "origins",
        "warnings",
        "structure",
        "task_ids",
        "uncorrected_energy_per_atom",
        "energy_per_atom",
        "formation_energy_per_atom",
        "energy_above_hull",
        "is_stable",
        "equilibrium_reaction_energy_per_atom",
        "decomposes_to",
        "xas",
        "grain_boundaries",
        "cbm",
        "vbm",
        "efermi",
        "is_gap_direct",
        "is_metal",
        "es_source_calc_id",
        "bandstructure",
        "dos",
        "dos_energy_up",
        "dos_energy_down",
        "is_magnetic",
        "ordering",
        "total_magnetization",
        "total_magnetization_normalized_vol",
        "total_magnetization_normalized_formula_units",
        "num_magnetic_sites",
        "num_unique_magnetic_sites",
        "types_of_magnetic_species",
        "bulk_modulus",
        "shear_modulus",
        "universal_anisotropy",
        "homogeneous_poisson",
        "e_total",
        "e_ionic",
        "e_electronic",
        "n",
        "e_ij_max",
        "weighted_surface_energy_EV_PER_ANG2",
        "weighted_surface_energy",
        "weighted_work_function",
        "surface_anisotropy",
        "shape_factor",
        "has_reconstructed",
        "possible_species",
        "has_props",
        "theoretical",
        "database_IDs"
    ]
}